 variables= "x","y","f"
 zone i=                   101  j=                   101  datapacking=point
  0.100000000000000       0.100000000000000       0.283600000000000     
  0.100000000000000       0.149000000000000       0.353082000000000     
  0.100000000000000       0.198000000000000       0.422564000000000     
  0.100000000000000       0.247000000000000       0.492046000000000     
  0.100000000000000       0.296000000000000       0.561528000000000     
  0.100000000000000       0.345000000000000       0.631010000000000     
  0.100000000000000       0.394000000000000       0.700492000000000     
  0.100000000000000       0.443000000000000       0.769974000000000     
  0.100000000000000       0.492000000000000       0.839456000000000     
  0.100000000000000       0.541000000000000       0.908938000000000     
  0.100000000000000       0.590000000000000       0.978420000000000     
  0.100000000000000       0.639000000000000        1.04790200000000     
  0.100000000000000       0.688000000000000        1.11738400000000     
  0.100000000000000       0.737000000000000        1.18686600000000     
  0.100000000000000       0.786000000000000        1.25634800000000     
  0.100000000000000       0.835000000000000        1.32583000000000     
  0.100000000000000       0.884000000000000        1.39531200000000     
  0.100000000000000       0.933000000000000        1.46479400000000     
  0.100000000000000       0.982000000000000        1.53427600000000     
  0.100000000000000        1.03100000000000        1.60375800000000     
  0.100000000000000        1.08000000000000        1.67324000000000     
  0.100000000000000        1.12900000000000        1.74272200000000     
  0.100000000000000        1.17800000000000        1.81220400000000     
  0.100000000000000        1.22700000000000        1.88168600000000     
  0.100000000000000        1.27600000000000        1.95116800000000     
  0.100000000000000        1.32500000000000        2.02065000000000     
  0.100000000000000        1.37400000000000        2.09013200000000     
  0.100000000000000        1.42300000000000        2.15961400000000     
  0.100000000000000        1.47200000000000        2.22909600000000     
  0.100000000000000        1.52100000000000        2.29857800000000     
  0.100000000000000        1.57000000000000        2.36806000000000     
  0.100000000000000        1.61900000000000        2.43754200000000     
  0.100000000000000        1.66800000000000        2.50702400000000     
  0.100000000000000        1.71700000000000        2.57650600000000     
  0.100000000000000        1.76600000000000        2.64598800000000     
  0.100000000000000        1.81500000000000        2.71547000000000     
  0.100000000000000        1.86400000000000        2.78495200000000     
  0.100000000000000        1.91300000000000        2.85443400000000     
  0.100000000000000        1.96200000000000        2.92391600000000     
  0.100000000000000        2.01100000000000        2.99339800000000     
  0.100000000000000        2.06000000000000        3.06288000000000     
  0.100000000000000        2.10900000000000        3.13236200000000     
  0.100000000000000        2.15800000000000        3.20184400000000     
  0.100000000000000        2.20700000000000        3.27132600000000     
  0.100000000000000        2.25600000000000        3.34080800000000     
  0.100000000000000        2.30500000000000        3.41029000000000     
  0.100000000000000        2.35400000000000        3.47977200000000     
  0.100000000000000        2.40300000000000        3.54925400000000     
  0.100000000000000        2.45200000000000        3.61873600000000     
  0.100000000000000        2.50100000000000        3.68821800000000     
  0.100000000000000        2.55000000000000        3.75770000000000     
  0.100000000000000        2.59900000000000        3.82718200000000     
  0.100000000000000        2.64800000000000        3.89666400000000     
  0.100000000000000        2.69700000000000        3.96614600000000     
  0.100000000000000        2.74600000000000        4.03562800000000     
  0.100000000000000        2.79500000000000        4.10511000000000     
  0.100000000000000        2.84400000000000        4.17459200000000     
  0.100000000000000        2.89300000000000        4.24407400000000     
  0.100000000000000        2.94200000000000        4.31355600000000     
  0.100000000000000        2.99100000000000        4.38303800000000     
  0.100000000000000        3.04000000000000        4.45252000000000     
  0.100000000000000        3.08900000000000        4.52200200000000     
  0.100000000000000        3.13800000000000        4.59148400000000     
  0.100000000000000        3.18700000000000        4.66096600000000     
  0.100000000000000        3.23600000000000        4.73044800000000     
  0.100000000000000        3.28500000000000        4.79993000000000     
  0.100000000000000        3.33400000000000        4.86941200000000     
  0.100000000000000        3.38300000000000        4.93889400000000     
  0.100000000000000        3.43200000000000        5.00837600000000     
  0.100000000000000        3.48100000000000        5.07785800000000     
  0.100000000000000        3.53000000000000        5.14734000000000     
  0.100000000000000        3.57900000000000        5.21682200000000     
  0.100000000000000        3.62800000000000        5.28630400000000     
  0.100000000000000        3.67700000000000        5.35578600000000     
  0.100000000000000        3.72600000000000        5.42526800000000     
  0.100000000000000        3.77500000000000        5.49475000000000     
  0.100000000000000        3.82400000000000        5.56423200000000     
  0.100000000000000        3.87300000000000        5.63371400000000     
  0.100000000000000        3.92200000000000        5.70319600000000     
  0.100000000000000        3.97100000000000        5.77267800000000     
  0.100000000000000        4.02000000000000        5.84216000000000     
  0.100000000000000        4.06900000000000        5.91164200000000     
  0.100000000000000        4.11800000000000        5.98112400000000     
  0.100000000000000        4.16700000000000        6.05060600000000     
  0.100000000000000        4.21600000000000        6.12008800000000     
  0.100000000000000        4.26500000000000        6.18957000000000     
  0.100000000000000        4.31400000000000        6.25905200000000     
  0.100000000000000        4.36300000000000        6.32853400000000     
  0.100000000000000        4.41200000000000        6.39801600000000     
  0.100000000000000        4.46100000000000        6.46749800000000     
  0.100000000000000        4.51000000000000        6.53698000000000     
  0.100000000000000        4.55900000000000        6.60646200000000     
  0.100000000000000        4.60800000000000        6.67594400000000     
  0.100000000000000        4.65700000000000        6.74542600000000     
  0.100000000000000        4.70600000000000        6.81490800000000     
  0.100000000000000        4.75500000000000        6.88439000000000     
  0.100000000000000        4.80400000000000        6.95387200000000     
  0.100000000000000        4.85300000000000        7.02335400000000     
  0.100000000000000        4.90200000000000        7.09283600000000     
  0.100000000000000        4.95100000000000        7.16231800000000     
  0.100000000000000        5.00000000000000        7.23180000000000     
  0.149000000000000       0.100000000000000       0.353082000000000     
  0.149000000000000       0.149000000000000       0.422564000000000     
  0.149000000000000       0.198000000000000       0.492046000000000     
  0.149000000000000       0.247000000000000       0.561528000000000     
  0.149000000000000       0.296000000000000       0.631010000000000     
  0.149000000000000       0.345000000000000       0.700492000000000     
  0.149000000000000       0.394000000000000       0.769974000000000     
  0.149000000000000       0.443000000000000       0.839456000000000     
  0.149000000000000       0.492000000000000       0.908938000000000     
  0.149000000000000       0.541000000000000       0.978420000000000     
  0.149000000000000       0.590000000000000        1.04790200000000     
  0.149000000000000       0.639000000000000        1.11738400000000     
  0.149000000000000       0.688000000000000        1.18686600000000     
  0.149000000000000       0.737000000000000        1.25634800000000     
  0.149000000000000       0.786000000000000        1.32583000000000     
  0.149000000000000       0.835000000000000        1.39531200000000     
  0.149000000000000       0.884000000000000        1.46479400000000     
  0.149000000000000       0.933000000000000        1.53427600000000     
  0.149000000000000       0.982000000000000        1.60375800000000     
  0.149000000000000        1.03100000000000        1.67324000000000     
  0.149000000000000        1.08000000000000        1.74272200000000     
  0.149000000000000        1.12900000000000        1.81220400000000     
  0.149000000000000        1.17800000000000        1.88168600000000     
  0.149000000000000        1.22700000000000        1.95116800000000     
  0.149000000000000        1.27600000000000        2.02065000000000     
  0.149000000000000        1.32500000000000        2.09013200000000     
  0.149000000000000        1.37400000000000        2.15961400000000     
  0.149000000000000        1.42300000000000        2.22909600000000     
  0.149000000000000        1.47200000000000        2.29857800000000     
  0.149000000000000        1.52100000000000        2.36806000000000     
  0.149000000000000        1.57000000000000        2.43754200000000     
  0.149000000000000        1.61900000000000        2.50702400000000     
  0.149000000000000        1.66800000000000        2.57650600000000     
  0.149000000000000        1.71700000000000        2.64598800000000     
  0.149000000000000        1.76600000000000        2.71547000000000     
  0.149000000000000        1.81500000000000        2.78495200000000     
  0.149000000000000        1.86400000000000        2.85443400000000     
  0.149000000000000        1.91300000000000        2.92391600000000     
  0.149000000000000        1.96200000000000        2.99339800000000     
  0.149000000000000        2.01100000000000        3.06288000000000     
  0.149000000000000        2.06000000000000        3.13236200000000     
  0.149000000000000        2.10900000000000        3.20184400000000     
  0.149000000000000        2.15800000000000        3.27132600000000     
  0.149000000000000        2.20700000000000        3.34080800000000     
  0.149000000000000        2.25600000000000        3.41029000000000     
  0.149000000000000        2.30500000000000        3.47977200000000     
  0.149000000000000        2.35400000000000        3.54925400000000     
  0.149000000000000        2.40300000000000        3.61873600000000     
  0.149000000000000        2.45200000000000        3.68821800000000     
  0.149000000000000        2.50100000000000        3.75770000000000     
  0.149000000000000        2.55000000000000        3.82718200000000     
  0.149000000000000        2.59900000000000        3.89666400000000     
  0.149000000000000        2.64800000000000        3.96614600000000     
  0.149000000000000        2.69700000000000        4.03562800000000     
  0.149000000000000        2.74600000000000        4.10511000000000     
  0.149000000000000        2.79500000000000        4.17459200000000     
  0.149000000000000        2.84400000000000        4.24407400000000     
  0.149000000000000        2.89300000000000        4.31355600000000     
  0.149000000000000        2.94200000000000        4.38303800000000     
  0.149000000000000        2.99100000000000        4.45252000000000     
  0.149000000000000        3.04000000000000        4.52200200000000     
  0.149000000000000        3.08900000000000        4.59148400000000     
  0.149000000000000        3.13800000000000        4.66096600000000     
  0.149000000000000        3.18700000000000        4.73044800000000     
  0.149000000000000        3.23600000000000        4.79993000000000     
  0.149000000000000        3.28500000000000        4.86941200000000     
  0.149000000000000        3.33400000000000        4.93889400000000     
  0.149000000000000        3.38300000000000        5.00837600000000     
  0.149000000000000        3.43200000000000        5.07785800000000     
  0.149000000000000        3.48100000000000        5.14734000000000     
  0.149000000000000        3.53000000000000        5.21682200000000     
  0.149000000000000        3.57900000000000        5.28630400000000     
  0.149000000000000        3.62800000000000        5.35578600000000     
  0.149000000000000        3.67700000000000        5.42526800000000     
  0.149000000000000        3.72600000000000        5.49475000000000     
  0.149000000000000        3.77500000000000        5.56423200000000     
  0.149000000000000        3.82400000000000        5.63371400000000     
  0.149000000000000        3.87300000000000        5.70319600000000     
  0.149000000000000        3.92200000000000        5.77267800000000     
  0.149000000000000        3.97100000000000        5.84216000000000     
  0.149000000000000        4.02000000000000        5.91164200000000     
  0.149000000000000        4.06900000000000        5.98112400000000     
  0.149000000000000        4.11800000000000        6.05060600000000     
  0.149000000000000        4.16700000000000        6.12008800000000     
  0.149000000000000        4.21600000000000        6.18957000000000     
  0.149000000000000        4.26500000000000        6.25905200000000     
  0.149000000000000        4.31400000000000        6.32853400000000     
  0.149000000000000        4.36300000000000        6.39801600000000     
  0.149000000000000        4.41200000000000        6.46749800000000     
  0.149000000000000        4.46100000000000        6.53698000000000     
  0.149000000000000        4.51000000000000        6.60646200000000     
  0.149000000000000        4.55900000000000        6.67594400000000     
  0.149000000000000        4.60800000000000        6.74542600000000     
  0.149000000000000        4.65700000000000        6.81490800000000     
  0.149000000000000        4.70600000000000        6.88439000000000     
  0.149000000000000        4.75500000000000        6.95387200000000     
  0.149000000000000        4.80400000000000        7.02335400000000     
  0.149000000000000        4.85300000000000        7.09283600000000     
  0.149000000000000        4.90200000000000        7.16231800000000     
  0.149000000000000        4.95100000000000        7.23180000000000     
  0.149000000000000        5.00000000000000        7.30128200000000     
  0.198000000000000       0.100000000000000       0.422564000000000     
  0.198000000000000       0.149000000000000       0.492046000000000     
  0.198000000000000       0.198000000000000       0.561528000000000     
  0.198000000000000       0.247000000000000       0.631010000000000     
  0.198000000000000       0.296000000000000       0.700492000000000     
  0.198000000000000       0.345000000000000       0.769974000000000     
  0.198000000000000       0.394000000000000       0.839456000000000     
  0.198000000000000       0.443000000000000       0.908938000000000     
  0.198000000000000       0.492000000000000       0.978420000000000     
  0.198000000000000       0.541000000000000        1.04790200000000     
  0.198000000000000       0.590000000000000        1.11738400000000     
  0.198000000000000       0.639000000000000        1.18686600000000     
  0.198000000000000       0.688000000000000        1.25634800000000     
  0.198000000000000       0.737000000000000        1.32583000000000     
  0.198000000000000       0.786000000000000        1.39531200000000     
  0.198000000000000       0.835000000000000        1.46479400000000     
  0.198000000000000       0.884000000000000        1.53427600000000     
  0.198000000000000       0.933000000000000        1.60375800000000     
  0.198000000000000       0.982000000000000        1.67324000000000     
  0.198000000000000        1.03100000000000        1.74272200000000     
  0.198000000000000        1.08000000000000        1.81220400000000     
  0.198000000000000        1.12900000000000        1.88168600000000     
  0.198000000000000        1.17800000000000        1.95116800000000     
  0.198000000000000        1.22700000000000        2.02065000000000     
  0.198000000000000        1.27600000000000        2.09013200000000     
  0.198000000000000        1.32500000000000        2.15961400000000     
  0.198000000000000        1.37400000000000        2.22909600000000     
  0.198000000000000        1.42300000000000        2.29857800000000     
  0.198000000000000        1.47200000000000        2.36806000000000     
  0.198000000000000        1.52100000000000        2.43754200000000     
  0.198000000000000        1.57000000000000        2.50702400000000     
  0.198000000000000        1.61900000000000        2.57650600000000     
  0.198000000000000        1.66800000000000        2.64598800000000     
  0.198000000000000        1.71700000000000        2.71547000000000     
  0.198000000000000        1.76600000000000        2.78495200000000     
  0.198000000000000        1.81500000000000        2.85443400000000     
  0.198000000000000        1.86400000000000        2.92391600000000     
  0.198000000000000        1.91300000000000        2.99339800000000     
  0.198000000000000        1.96200000000000        3.06288000000000     
  0.198000000000000        2.01100000000000        3.13236200000000     
  0.198000000000000        2.06000000000000        3.20184400000000     
  0.198000000000000        2.10900000000000        3.27132600000000     
  0.198000000000000        2.15800000000000        3.34080800000000     
  0.198000000000000        2.20700000000000        3.41029000000000     
  0.198000000000000        2.25600000000000        3.47977200000000     
  0.198000000000000        2.30500000000000        3.54925400000000     
  0.198000000000000        2.35400000000000        3.61873600000000     
  0.198000000000000        2.40300000000000        3.68821800000000     
  0.198000000000000        2.45200000000000        3.75770000000000     
  0.198000000000000        2.50100000000000        3.82718200000000     
  0.198000000000000        2.55000000000000        3.89666400000000     
  0.198000000000000        2.59900000000000        3.96614600000000     
  0.198000000000000        2.64800000000000        4.03562800000000     
  0.198000000000000        2.69700000000000        4.10511000000000     
  0.198000000000000        2.74600000000000        4.17459200000000     
  0.198000000000000        2.79500000000000        4.24407400000000     
  0.198000000000000        2.84400000000000        4.31355600000000     
  0.198000000000000        2.89300000000000        4.38303800000000     
  0.198000000000000        2.94200000000000        4.45252000000000     
  0.198000000000000        2.99100000000000        4.52200200000000     
  0.198000000000000        3.04000000000000        4.59148400000000     
  0.198000000000000        3.08900000000000        4.66096600000000     
  0.198000000000000        3.13800000000000        4.73044800000000     
  0.198000000000000        3.18700000000000        4.79993000000000     
  0.198000000000000        3.23600000000000        4.86941200000000     
  0.198000000000000        3.28500000000000        4.93889400000000     
  0.198000000000000        3.33400000000000        5.00837600000000     
  0.198000000000000        3.38300000000000        5.07785800000000     
  0.198000000000000        3.43200000000000        5.14734000000000     
  0.198000000000000        3.48100000000000        5.21682200000000     
  0.198000000000000        3.53000000000000        5.28630400000000     
  0.198000000000000        3.57900000000000        5.35578600000000     
  0.198000000000000        3.62800000000000        5.42526800000000     
  0.198000000000000        3.67700000000000        5.49475000000000     
  0.198000000000000        3.72600000000000        5.56423200000000     
  0.198000000000000        3.77500000000000        5.63371400000000     
  0.198000000000000        3.82400000000000        5.70319600000000     
  0.198000000000000        3.87300000000000        5.77267800000000     
  0.198000000000000        3.92200000000000        5.84216000000000     
  0.198000000000000        3.97100000000000        5.91164200000000     
  0.198000000000000        4.02000000000000        5.98112400000000     
  0.198000000000000        4.06900000000000        6.05060600000000     
  0.198000000000000        4.11800000000000        6.12008800000000     
  0.198000000000000        4.16700000000000        6.18957000000000     
  0.198000000000000        4.21600000000000        6.25905200000000     
  0.198000000000000        4.26500000000000        6.32853400000000     
  0.198000000000000        4.31400000000000        6.39801600000000     
  0.198000000000000        4.36300000000000        6.46749800000000     
  0.198000000000000        4.41200000000000        6.53698000000000     
  0.198000000000000        4.46100000000000        6.60646200000000     
  0.198000000000000        4.51000000000000        6.67594400000000     
  0.198000000000000        4.55900000000000        6.74542600000000     
  0.198000000000000        4.60800000000000        6.81490800000000     
  0.198000000000000        4.65700000000000        6.88439000000000     
  0.198000000000000        4.70600000000000        6.95387200000000     
  0.198000000000000        4.75500000000000        7.02335400000000     
  0.198000000000000        4.80400000000000        7.09283600000000     
  0.198000000000000        4.85300000000000        7.16231800000000     
  0.198000000000000        4.90200000000000        7.23180000000000     
  0.198000000000000        4.95100000000000        7.30128200000000     
  0.198000000000000        5.00000000000000        7.37076400000000     
  0.247000000000000       0.100000000000000       0.492046000000000     
  0.247000000000000       0.149000000000000       0.561528000000000     
  0.247000000000000       0.198000000000000       0.631010000000000     
  0.247000000000000       0.247000000000000       0.700492000000000     
  0.247000000000000       0.296000000000000       0.769974000000000     
  0.247000000000000       0.345000000000000       0.839456000000000     
  0.247000000000000       0.394000000000000       0.908938000000000     
  0.247000000000000       0.443000000000000       0.978420000000000     
  0.247000000000000       0.492000000000000        1.04790200000000     
  0.247000000000000       0.541000000000000        1.11738400000000     
  0.247000000000000       0.590000000000000        1.18686600000000     
  0.247000000000000       0.639000000000000        1.25634800000000     
  0.247000000000000       0.688000000000000        1.32583000000000     
  0.247000000000000       0.737000000000000        1.39531200000000     
  0.247000000000000       0.786000000000000        1.46479400000000     
  0.247000000000000       0.835000000000000        1.53427600000000     
  0.247000000000000       0.884000000000000        1.60375800000000     
  0.247000000000000       0.933000000000000        1.67324000000000     
  0.247000000000000       0.982000000000000        1.74272200000000     
  0.247000000000000        1.03100000000000        1.81220400000000     
  0.247000000000000        1.08000000000000        1.88168600000000     
  0.247000000000000        1.12900000000000        1.95116800000000     
  0.247000000000000        1.17800000000000        2.02065000000000     
  0.247000000000000        1.22700000000000        2.09013200000000     
  0.247000000000000        1.27600000000000        2.15961400000000     
  0.247000000000000        1.32500000000000        2.22909600000000     
  0.247000000000000        1.37400000000000        2.29857800000000     
  0.247000000000000        1.42300000000000        2.36806000000000     
  0.247000000000000        1.47200000000000        2.43754200000000     
  0.247000000000000        1.52100000000000        2.50702400000000     
  0.247000000000000        1.57000000000000        2.57650600000000     
  0.247000000000000        1.61900000000000        2.64598800000000     
  0.247000000000000        1.66800000000000        2.71547000000000     
  0.247000000000000        1.71700000000000        2.78495200000000     
  0.247000000000000        1.76600000000000        2.85443400000000     
  0.247000000000000        1.81500000000000        2.92391600000000     
  0.247000000000000        1.86400000000000        2.99339800000000     
  0.247000000000000        1.91300000000000        3.06288000000000     
  0.247000000000000        1.96200000000000        3.13236200000000     
  0.247000000000000        2.01100000000000        3.20184400000000     
  0.247000000000000        2.06000000000000        3.27132600000000     
  0.247000000000000        2.10900000000000        3.34080800000000     
  0.247000000000000        2.15800000000000        3.41029000000000     
  0.247000000000000        2.20700000000000        3.47977200000000     
  0.247000000000000        2.25600000000000        3.54925400000000     
  0.247000000000000        2.30500000000000        3.61873600000000     
  0.247000000000000        2.35400000000000        3.68821800000000     
  0.247000000000000        2.40300000000000        3.75770000000000     
  0.247000000000000        2.45200000000000        3.82718200000000     
  0.247000000000000        2.50100000000000        3.89666400000000     
  0.247000000000000        2.55000000000000        3.96614600000000     
  0.247000000000000        2.59900000000000        4.03562800000000     
  0.247000000000000        2.64800000000000        4.10511000000000     
  0.247000000000000        2.69700000000000        4.17459200000000     
  0.247000000000000        2.74600000000000        4.24407400000000     
  0.247000000000000        2.79500000000000        4.31355600000000     
  0.247000000000000        2.84400000000000        4.38303800000000     
  0.247000000000000        2.89300000000000        4.45252000000000     
  0.247000000000000        2.94200000000000        4.52200200000000     
  0.247000000000000        2.99100000000000        4.59148400000000     
  0.247000000000000        3.04000000000000        4.66096600000000     
  0.247000000000000        3.08900000000000        4.73044800000000     
  0.247000000000000        3.13800000000000        4.79993000000000     
  0.247000000000000        3.18700000000000        4.86941200000000     
  0.247000000000000        3.23600000000000        4.93889400000000     
  0.247000000000000        3.28500000000000        5.00837600000000     
  0.247000000000000        3.33400000000000        5.07785800000000     
  0.247000000000000        3.38300000000000        5.14734000000000     
  0.247000000000000        3.43200000000000        5.21682200000000     
  0.247000000000000        3.48100000000000        5.28630400000000     
  0.247000000000000        3.53000000000000        5.35578600000000     
  0.247000000000000        3.57900000000000        5.42526800000000     
  0.247000000000000        3.62800000000000        5.49475000000000     
  0.247000000000000        3.67700000000000        5.56423200000000     
  0.247000000000000        3.72600000000000        5.63371400000000     
  0.247000000000000        3.77500000000000        5.70319600000000     
  0.247000000000000        3.82400000000000        5.77267800000000     
  0.247000000000000        3.87300000000000        5.84216000000000     
  0.247000000000000        3.92200000000000        5.91164200000000     
  0.247000000000000        3.97100000000000        5.98112400000000     
  0.247000000000000        4.02000000000000        6.05060600000000     
  0.247000000000000        4.06900000000000        6.12008800000000     
  0.247000000000000        4.11800000000000        6.18957000000000     
  0.247000000000000        4.16700000000000        6.25905200000000     
  0.247000000000000        4.21600000000000        6.32853400000000     
  0.247000000000000        4.26500000000000        6.39801600000000     
  0.247000000000000        4.31400000000000        6.46749800000000     
  0.247000000000000        4.36300000000000        6.53698000000000     
  0.247000000000000        4.41200000000000        6.60646200000000     
  0.247000000000000        4.46100000000000        6.67594400000000     
  0.247000000000000        4.51000000000000        6.74542600000000     
  0.247000000000000        4.55900000000000        6.81490800000000     
  0.247000000000000        4.60800000000000        6.88439000000000     
  0.247000000000000        4.65700000000000        6.95387200000000     
  0.247000000000000        4.70600000000000        7.02335400000000     
  0.247000000000000        4.75500000000000        7.09283600000000     
  0.247000000000000        4.80400000000000        7.16231800000000     
  0.247000000000000        4.85300000000000        7.23180000000000     
  0.247000000000000        4.90200000000000        7.30128200000000     
  0.247000000000000        4.95100000000000        7.37076400000000     
  0.247000000000000        5.00000000000000        7.44024600000000     
  0.296000000000000       0.100000000000000       0.561528000000000     
  0.296000000000000       0.149000000000000       0.631010000000000     
  0.296000000000000       0.198000000000000       0.700492000000000     
  0.296000000000000       0.247000000000000       0.769974000000000     
  0.296000000000000       0.296000000000000       0.839456000000000     