 variables= "x","y","fpcb"
 zone i=                    42  datapacking=point
   2.56685539363648        4.61588737484059       0.000000000000000E+000
   4.49693419659497        2.11077563389033       0.000000000000000E+000
   4.10637578322109        1.53941246299389       0.000000000000000E+000
  0.682788890800290        3.45526572844800       0.000000000000000E+000
   3.60788783522891       0.809431437461311       0.000000000000000E+000
   3.22918023967579        2.63083634604157       0.000000000000000E+000
   1.75728847127388        3.04980132569998       0.000000000000000E+000
   1.73067005464948       0.435881120722186       0.000000000000000E+000
   1.07160885364859        2.49566294239937       0.000000000000000E+000
   4.76333674268590        4.38207322016881       0.000000000000000E+000
  0.483967807453798        3.82961155341011       0.000000000000000E+000
   2.18860688328275        1.24804487880031       0.000000000000000E+000
  0.120365117168960       0.165479617841542       0.000000000000000E+000
  0.345055881828093       0.864525624676121       0.000000000000000E+000
  0.855821940597077       0.251318068574801       0.000000000000000E+000
  0.126721690345774        1.76314479240872       0.000000000000000E+000
   4.83389805101384       0.175858842304601       0.000000000000000E+000
  0.105095998664046        2.67553721232908       0.000000000000000E+000
   4.10485319637394        4.94954833119669       0.000000000000000E+000
   4.95671758430664        1.00739310144472       0.000000000000000E+000
   1.50905569212222        4.99548225495437       0.000000000000000E+000
  0.595211734799305        4.98637636279319       0.000000000000000E+000
   3.90837177357455        4.35829375830652       0.000000000000000E+000
   4.99937214772940        3.75925502580256       0.000000000000000E+000
   1.19613630819032        4.46310863431872       0.000000000000000E+000
   2.45818510966724        3.10541982081163       0.000000000000000E+000
   3.72244629776456        3.50182499601202       0.000000000000000E+000
   3.29348967293740        4.17874707569616       0.000000000000000E+000
   1.05531593622797        1.81209325791211       0.000000000000000E+000
   1.96039825494293        3.66681544492056       0.000000000000000E+000
   3.00771421119912        4.92663943341202       0.000000000000000E+000
   4.97876497611445        4.78591395091321       0.000000000000000E+000
   2.28826294390999       0.124139953825742       0.000000000000000E+000
  0.120107180878293        4.67341181374182       0.000000000000000E+000
   1.50176003077106        3.98425519391468       0.000000000000000E+000
   4.97499397927272        2.06603225886163       0.000000000000000E+000
   3.98048012186238       0.187456701590199       0.000000000000000E+000
   4.65705135713326        3.33024052326959       0.000000000000000E+000
   4.22191972936973        3.19523269598336       0.000000000000000E+000
   1.71000384055623        4.43804412854604       0.000000000000000E+000
   2.43736681398276        3.61652734068508       0.000000000000000E+000
   4.38973807357204       0.759775936204108       0.000000000000000E+000
