 variables= "x","y","fPC"
 zone i=                   101  j=                   101  datapacking=point
  0.100000000000000       0.100000000000000        5.40595706751815     
  0.100000000000000       0.149000000000000        5.75633066264627     
  0.100000000000000       0.198000000000000        6.07189608846099     
  0.100000000000000       0.247000000000000        6.35492779928828     
  0.100000000000000       0.296000000000000        6.60761459147060     
  0.100000000000000       0.345000000000000        6.83206108609625     
  0.100000000000000       0.394000000000000        7.03028921172864     
  0.100000000000000       0.443000000000000        7.20423968713565     
  0.100000000000000       0.492000000000000        7.35577350401890     
  0.100000000000000       0.541000000000000        7.48667340974309     
  0.100000000000000       0.590000000000000        7.59864539006530     
  0.100000000000000       0.639000000000000        7.69332015186433     
  0.100000000000000       0.688000000000000        7.77225460586994     
  0.100000000000000       0.737000000000000        7.83693334939228     
  0.100000000000000       0.786000000000000        7.88877014905109     
  0.100000000000000       0.835000000000000        7.92910942350509     
  0.100000000000000       0.884000000000000        7.95922772618124     
  0.100000000000000       0.933000000000000        7.98033522800410     
  0.100000000000000       0.982000000000000        7.99357720012513     
  0.100000000000000        1.03100000000000        8.00003549665197     
  0.100000000000000        1.08000000000000        8.00073003737777     
  0.100000000000000        1.12900000000000        7.99662029051056     
  0.100000000000000        1.17800000000000        7.98860675540247     
  0.100000000000000        1.22700000000000        7.97753244527911     
  0.100000000000000        1.27600000000000        7.96418436996885     
  0.100000000000000        1.32500000000000        7.94929501863216     
  0.100000000000000        1.37400000000000        7.93354384249089     
  0.100000000000000        1.42300000000000        7.91755873755762     
  0.100000000000000        1.47200000000000        7.90191752736495     
  0.100000000000000        1.52100000000000        7.88714944569480     
  0.100000000000000        1.57000000000000        7.87373661930778     
  0.100000000000000        1.61900000000000        7.86211555067241     
  0.100000000000000        1.66800000000000        7.85267860069456     
  0.100000000000000        1.71700000000000        7.84577547144663     
  0.100000000000000        1.76600000000000        7.84171468889695     
  0.100000000000000        1.81500000000000        7.84076508563907     
  0.100000000000000        1.86400000000000        7.84315728362106     
  0.100000000000000        1.91300000000000        7.84908517687485     
  0.100000000000000        1.96200000000000        7.85870741424553     
  0.100000000000000        2.01100000000000        7.87214888212064     
  0.100000000000000        2.06000000000000        7.88950218715954     
  0.100000000000000        2.10900000000000        7.91082913902263     
  0.100000000000000        2.15800000000000        7.93616223310079     
  0.100000000000000        2.20700000000000        7.96550613324459     
  0.100000000000000        2.25600000000000        7.99883915449363     
  0.100000000000000        2.30500000000000        8.03611474580588     
  0.100000000000000        2.35400000000000        8.07726297278698     
  0.100000000000000        2.40300000000000        8.12219200041953     
  0.100000000000000        2.45200000000000        8.17078957579242     
  0.100000000000000        2.50100000000000        8.22292451083019     
  0.100000000000000        2.55000000000000        8.27844816502222     
  0.100000000000000        2.59900000000000        8.33719592815217     
  0.100000000000000        2.64800000000000        8.39898870302726     
  0.100000000000000        2.69700000000000        8.46363438820757     
  0.100000000000000        2.74600000000000        8.53092936073527     
  0.100000000000000        2.79500000000000        8.60065995886412     
  0.100000000000000        2.84400000000000        8.67260396478864     
  0.100000000000000        2.89300000000000        8.74653208737339     
  0.100000000000000        2.94200000000000        8.82220944488249     
  0.100000000000000        2.99100000000000        8.89939704770872     
  0.100000000000000        3.04000000000000        8.97785328110289     
  0.100000000000000        3.08900000000000        9.05733538790324     
  0.100000000000000        3.13800000000000        9.13760095126463     
  0.100000000000000        3.18700000000000        9.21840937738795     
  0.100000000000000        3.23600000000000        9.29952337824935     
  0.100000000000000        3.28500000000000        9.38071045432969     
  0.100000000000000        3.33400000000000        9.46174437734360     
  0.100000000000000        3.38300000000000        9.54240667296919     
  0.100000000000000        3.43200000000000        9.62248810357690     
  0.100000000000000        3.48100000000000        9.70179015095916     
  0.100000000000000        3.53000000000000        9.78012649905958     
  0.100000000000000        3.57900000000000        9.85732451670218     
  0.100000000000000        3.62800000000000        9.93322674032096     
  0.100000000000000        3.67700000000000        10.0076923566889     
  0.100000000000000        3.72600000000000        10.0805986856474     
  0.100000000000000        3.77500000000000        10.1518426628358     
  0.100000000000000        3.82400000000000        10.2213423224203     
  0.100000000000000        3.87300000000000        10.2890382798236     
  0.100000000000000        3.92200000000000        10.3548952144541     
  0.100000000000000        3.97100000000000        10.4189033524349     
  0.100000000000000        4.02000000000000        10.4810799493341     
  0.100000000000000        4.06900000000000        10.5414707728926     
  0.100000000000000        4.11800000000000        10.6001515857548     
  0.100000000000000        4.16700000000000        10.6572296281973     
  0.100000000000000        4.21600000000000        10.7128451008581     
  0.100000000000000        4.26500000000000        10.7671726474662     
  0.100000000000000        4.31400000000000        10.8204228375706     
  0.100000000000000        4.36300000000000        10.8728436492703     
  0.100000000000000        4.41200000000000        10.9247219519426     
  0.100000000000000        4.46100000000000        10.9763849889730     
  0.100000000000000        4.51000000000000        11.0282018604849     
  0.100000000000000        4.55900000000000        11.0805850060679     
  0.100000000000000        4.60800000000000        11.1339916875082     
  0.100000000000000        4.65700000000000        11.1889254715168     
  0.100000000000000        4.70600000000000        11.2459377124599     
  0.100000000000000        4.75500000000000        11.3056290350876     
  0.100000000000000        4.80400000000000        11.3686508172632     
  0.100000000000000        4.85300000000000        11.4357066726929     
  0.100000000000000        4.90200000000000        11.5075539336543     
  0.100000000000000        4.95100000000000        11.5850051337269     
  0.100000000000000        5.00000000000000        11.6689294905207     
  0.149000000000000       0.100000000000000        5.31831010310823     
  0.149000000000000       0.149000000000000        5.65789798750811     
  0.149000000000000       0.198000000000000        5.96331174106701     
  0.149000000000000       0.247000000000000        6.23680296367227     
  0.149000000000000       0.296000000000000        6.48053794284748     
  0.149000000000000       0.345000000000000        6.69659913648180     
  0.149000000000000       0.394000000000000        6.88698665555924     
  0.149000000000000       0.443000000000000        7.05361974688805     
  0.149000000000000       0.492000000000000        7.19833827582993     
  0.149000000000000       0.541000000000000        7.32290420902944     
  0.149000000000000       0.590000000000000        7.42900309714325     
  0.149000000000000       0.639000000000000        7.51824555756948     
  0.149000000000000       0.688000000000000        7.59216875717700     
  0.149000000000000       0.737000000000000        7.65223789503477     
  0.149000000000000       0.786000000000000        7.69984768514110     
  0.149000000000000       0.835000000000000        7.73632383915304     
  0.149000000000000       0.884000000000000        7.76292454911562     
  0.149000000000000       0.933000000000000        7.78084197019120     
  0.149000000000000       0.982000000000000        7.79120370338879     
  0.149000000000000        1.03100000000000        7.79507427829333     
  0.149000000000000        1.08000000000000        7.79345663579504     
  0.149000000000000        1.12900000000000        7.78729361081872     
  0.149000000000000        1.17800000000000        7.77746941505306     
  0.149000000000000        1.22700000000000        7.76481111967992     
  0.149000000000000        1.27600000000000        7.75009013810373     
  0.149000000000000        1.32500000000000        7.73402370868072     
  0.149000000000000        1.37400000000000        7.71727637744827     
  0.149000000000000        1.42300000000000        7.70046148085422     
  0.149000000000000        1.47200000000000        7.68414262848617     
  0.149000000000000        1.52100000000000        7.66883518580083     
  0.149000000000000        1.57000000000000        7.65500775685327     
  0.149000000000000        1.61900000000000        7.64308366702630     
  0.149000000000000        1.66800000000000        7.63344244575975     
  0.149000000000000        1.71700000000000        7.62642130927978     
  0.149000000000000        1.76600000000000        7.62231664332820     
  0.149000000000000        1.81500000000000        7.62138548589179     
  0.149000000000000        1.86400000000000        7.62384700993160     
  0.149000000000000        1.91300000000000        7.62988400611227     
  0.149000000000000        1.96200000000000        7.63964436553137     
  0.149000000000000        2.01100000000000        7.65324256244865     
  0.149000000000000        2.06000000000000        7.67076113701543     
  0.149000000000000        2.10900000000000        7.69225217800381     
  0.149000000000000        2.15800000000000        7.71773880553612     
  0.149000000000000        2.20700000000000        7.74721665381413     
  0.149000000000000        2.25600000000000        7.78065535384838     
  0.149000000000000        2.30500000000000        7.81800001618752     
  0.149000000000000        2.35400000000000        7.85917271364764     
  0.149000000000000        2.40300000000000        7.90407396404149     
  0.149000000000000        2.45200000000000        7.95258421290790     
  0.149000000000000        2.50100000000000        8.00456531624108     
  0.149000000000000        2.55000000000000        8.05986202321982     
  0.149000000000000        2.59900000000000        8.11830345893694     
  0.149000000000000        2.64800000000000        8.17970460712857     
  0.149000000000000        2.69700000000000        8.24386779290344     
  0.149000000000000        2.74600000000000        8.31058416547212     
  0.149000000000000        2.79500000000000        8.37963518087650     
  0.149000000000000        2.84400000000000        8.45079408471899     
  0.149000000000000        2.89300000000000        8.52382739489182     
  0.149000000000000        2.94200000000000        8.59849638430644     
  0.149000000000000        2.99100000000000        8.67455856362277     
  0.149000000000000        3.04000000000000        8.75176916397849     
  0.149000000000000        3.08900000000000        8.82988261971846     
  0.149000000000000        3.13800000000000        8.90865405112391     
  0.149000000000000        3.18700000000000        8.98784074714185     
  0.149000000000000        3.23600000000000        9.06720364811423     
  0.149000000000000        3.28500000000000        9.14650882850755     
  0.149000000000000        3.33400000000000        9.22552897964177     
  0.149000000000000        3.38300000000000        9.30404489242009     
  0.149000000000000        3.43200000000000        9.38184694005784     
  0.149000000000000        3.48100000000000        9.45873656081191     
  0.149000000000000        3.53000000000000        9.53452774071031     
  0.149000000000000        3.57900000000000        9.60904849628120     
  0.149000000000000        3.62800000000000        9.68214235728223     
  0.149000000000000        3.67700000000000        9.75366984943009     
  0.149000000000000        3.72600000000000        9.82350997712948     
  0.149000000000000        3.77500000000000        9.89156170620262     
  0.149000000000000        3.82400000000000        9.95774544661874     
  0.149000000000000        3.87300000000000        10.0220045352230     
  0.149000000000000        3.92200000000000        10.0843067184659     
  0.149000000000000        3.97100000000000        10.1446456351330     
  0.149000000000000        4.02000000000000        10.2030422990737     
  0.149000000000000        4.06900000000000        10.2595465819309     
  0.149000000000000        4.11800000000000        10.3142386958700     
  0.149000000000000        4.16700000000000        10.3672306763085     
  0.149000000000000        4.21600000000000        10.4186678646454     
  0.149000000000000        4.26500000000000        10.4687303909901     
  0.149000000000000        4.31400000000000        10.5176346568920     
  0.149000000000000        4.36300000000000        10.5656348180698     
  0.149000000000000        4.41200000000000        10.6130242671408     
  0.149000000000000        4.46100000000000        10.6601371163500     
  0.149000000000000        4.51000000000000        10.7073496802999     
  0.149000000000000        4.55900000000000        10.7550819586793     
  0.149000000000000        4.60800000000000        10.8037991189927     
  0.149000000000000        4.65700000000000        10.8540129792899     
  0.149000000000000        4.70600000000000        10.9062834908955     
  0.149000000000000        4.75500000000000        10.9612202211372     
  0.149000000000000        4.80400000000000        11.0194838360760     
  0.149000000000000        4.85300000000000        11.0817875832358     
  0.149000000000000        4.90200000000000        11.1488987743314     
  0.149000000000000        4.95100000000000        11.2216402679991     
  0.149000000000000        5.00000000000000        11.3008919525255     
  0.198000000000000       0.100000000000000        5.25316879295694     
  0.198000000000000       0.149000000000000        5.58223701364204     
  0.198000000000000       0.198000000000000        5.87775991261093     
  0.198000000000000       0.247000000000000        6.14196637522546     
  0.198000000000000       0.296000000000000        6.37700032010347     
  0.198000000000000       0.345000000000000        6.58492218184814     
  0.198000000000000       0.394000000000000        6.76771039377723     
  0.198000000000000       0.443000000000000        6.92726287065247     
  0.198000000000000       0.492000000000000        7.06539849140882     
  0.198000000000000       0.541000000000000        7.18385858188381     
  0.198000000000000       0.590000000000000        7.28430839754686     
  0.198000000000000       0.639000000000000        7.36833860622856     
  0.198000000000000       0.688000000000000        7.43746677085000     
  0.198000000000000       0.737000000000000        7.49313883215211     
  0.198000000000000       0.786000000000000        7.53673059142493     
  0.198000000000000       0.835000000000000        7.56954919323695     
  0.198000000000000       0.884000000000000        7.59283460816441     
  0.198000000000000       0.933000000000000        7.60776111552064     
  0.198000000000000       0.982000000000000        7.61543878608532     
  0.198000000000000        1.03100000000000        7.61691496483386     
  0.198000000000000        1.08000000000000        7.61317575366666     
  0.198000000000000        1.12900000000000        7.60514749413844     
  0.198000000000000        1.17800000000000        7.59369825018757     
  0.198000000000000        1.22700000000000        7.57963929086537     
  0.198000000000000        1.27600000000000        7.56372657306540     
  0.198000000000000        1.32500000000000        7.54666222425284     
  0.198000000000000        1.37400000000000        7.52909602519370     
  0.198000000000000        1.42300000000000        7.51162689268424     
  0.198000000000000        1.47200000000000        7.49480436228024     
  0.198000000000000        1.52100000000000        7.47913007102625     
  0.198000000000000        1.57000000000000        7.46505924018505     
  0.198000000000000        1.61900000000000        7.45300215796679     
  0.198000000000000        1.66800000000000        7.44332566225847     
  0.198000000000000        1.71700000000000        7.43635462335311     
  0.198000000000000        1.76600000000000        7.43237342667916     
  0.198000000000000        1.81500000000000        7.43162745552976     
  0.198000000000000        1.86400000000000        7.43432457379208     
  0.198000000000000        1.91300000000000        7.44063660867664     
  0.198000000000000        1.96200000000000        7.45070083344660     
  0.198000000000000        2.01100000000000        7.46462145014707     
  0.198000000000000        2.06000000000000        7.48247107233446     
  0.198000000000000        2.10900000000000        7.50429220780575     
  0.198000000000000        2.15800000000000        7.53009874132783     
  0.198000000000000        2.20700000000000        7.55987741736682     
  0.198000000000000        2.25600000000000        7.59358932281733     
  0.198000000000000        2.30500000000000        7.63117136973184     
  0.198000000000000        2.35400000000000        7.67253777805003     
  0.198000000000000        2.40300000000000        7.71758155832797     
  0.198000000000000        2.45200000000000        7.76617599446754     
  0.198000000000000        2.50100000000000        7.81817612644576     
  0.198000000000000        2.55000000000000        7.87342023304398     
  0.198000000000000        2.59900000000000        7.93173131457734     
  0.198000000000000        2.64800000000000        7.99291857562398     
  0.198000000000000        2.69700000000000        8.05677890775447     
  0.198000000000000        2.74600000000000        8.12309837226087     
  0.198000000000000        2.79500000000000        8.19165368288638     
  0.198000000000000        2.84400000000000        8.26221368855445     
  0.198000000000000        2.89300000000000        8.33454085609805     
  0.198000000000000        2.94200000000000        8.40839275298919     
  0.198000000000000        2.99100000000000        8.48352353006802     
  0.198000000000000        3.04000000000000        8.55968540427228     
  0.198000000000000        3.08900000000000        8.63663014136655     
  0.198000000000000        3.13800000000000        8.71411053867158     
  0.198000000000000        3.18700000000000        8.79188190779360     
  0.198000000000000        3.23600000000000        8.86970355735359     
  0.198000000000000        3.28500000000000        8.94734027571675     
  0.198000000000000        3.33400000000000        9.02456381372160     
  0.198000000000000        3.38300000000000        9.10115436740949     
  0.198000000000000        3.43200000000000        9.17690206075373     
  0.198000000000000        3.48100000000000        9.25160842838903     
  0.198000000000000        3.53000000000000        9.32508789834072     
  0.198000000000000        3.57900000000000        9.39716927475428     
  0.198000000000000        3.62800000000000        9.46769722062431     
  0.198000000000000        3.67700000000000        9.53653374052419     
  0.198000000000000        3.72600000000000        9.60355966333502     
  0.198000000000000        3.77500000000000        9.66867612497531     
  0.198000000000000        3.82400000000000        9.73180605113021     
  0.198000000000000        3.87300000000000        9.79289563998042     
  0.198000000000000        3.92200000000000        9.85191584493217     
  0.198000000000000        3.97100000000000        9.90886385734589     
  0.198000000000000        4.02000000000000        9.96376458926607     
  0.198000000000000        4.06900000000000        10.0166721561501     
  0.198000000000000        4.11800000000000        10.0676713595981     
  0.198000000000000        4.16700000000000        10.1168791700817     
  0.198000000000000        4.21600000000000        10.1644462096735     
  0.198000000000000        4.26500000000000        10.2105582347767     
  0.198000000000000        4.31400000000000        10.2554376188541     
  0.198000000000000        4.36300000000000        10.2993448351577     
  0.198000000000000        4.41200000000000        10.3425799394575     
  0.198000000000000        4.46100000000000        10.3854840527712     
  0.198000000000000        4.51000000000000        10.4284408440937     
  0.198000000000000        4.55900000000000        10.4718780131257     
  0.198000000000000        4.60800000000000        10.5162687730040     
  0.198000000000000        4.65700000000000        10.5621333330297     
  0.198000000000000        4.70600000000000        10.6100403813988     
  0.198000000000000        4.75500000000000        10.6606085679302     
  0.198000000000000        4.80400000000000        10.7145079867958     
  0.198000000000000        4.85300000000000        10.7724616592498     
  0.198000000000000        4.90200000000000        10.8352470163577     
  0.198000000000000        4.95100000000000        10.9036973817257     
  0.198000000000000        5.00000000000000        10.9787034542303     
  0.247000000000000       0.100000000000000        5.20854849027446     
  0.247000000000000       0.149000000000000        5.52735498500289     
  0.247000000000000       0.198000000000000        5.81323969319372     
  0.247000000000000       0.247000000000000        6.06840892559645     
  0.247000000000000       0.296000000000000        6.29498437183634     
  0.247000000000000       0.345000000000000        6.49500458314369     
  0.247000000000000       0.394000000000000        6.67042645508317     
  0.247000000000000       0.443000000000000        6.82312671028314     
  0.247000000000000       0.492000000000000        6.95490338116495     
  0.247000000000000       0.541000000000000        7.06747729267226     
  0.247000000000000       0.590000000000000        7.16249354500035     
  0.247000000000000       0.639000000000000        7.24152299632544     
  0.247000000000000       0.688000000000000        7.30606374553399     
  0.247000000000000       0.737000000000000        7.35754261495203     
  0.247000000000000       0.786000000000000        7.39731663307446     
  0.247000000000000       0.835000000000000        7.42667451729438     
  0.247000000000000       0.884000000000000        7.44683815663238     
  0.247000000000000       0.933000000000000        7.45896409446586     
  0.247000000000000       0.982000000000000        7.46414501125837     
  0.247000000000000        1.03100000000000        7.46341120728889     
  0.247000000000000        1.08000000000000        7.45773208538114     
  0.247000000000000        1.12900000000000        7.44801763363294     
  0.247000000000000        1.17800000000000        7.43511990814546     
  0.247000000000000        1.22700000000000        7.41983451575259     
  0.247000000000000        1.27600000000000        7.40290209675021     
  0.247000000000000        1.32500000000000        7.38500980762556     
  0.247000000000000        1.37400000000000        7.36679280378644     
  0.247000000000000        1.42300000000000        7.34883572229069     
  0.247000000000000        1.47200000000000        7.33167416457534     
  0.247000000000000        1.52100000000000        7.31579617918602     
  0.247000000000000        1.57000000000000        7.30164374450627     
  0.247000000000000        1.61900000000000        7.28961425148679     
  0.247000000000000        1.66800000000000        7.28006198637485     
  0.247000000000000        1.71700000000000        7.27329961344349     
  0.247000000000000        1.76600000000000        7.26959965772092     
  0.247000000000000        1.81500000000000        7.26919598771982     
  0.247000000000000        1.86400000000000        7.27228529816660     
  0.247000000000000        1.91300000000000        7.27902859273078     
  0.247000000000000        1.96200000000000        7.28955266675429     
  0.247000000000000        2.01100000000000        7.30395158998073     
  0.247000000000000        2.06000000000000        7.32228818928475     
  0.247000000000000        2.10900000000000        7.34459553140130     
  0.247000000000000        2.15800000000000        7.37087840565503     
  0.247000000000000        2.20700000000000        7.40111480668952     
  0.247000000000000        2.25600000000000        7.43525741719662     
  0.247000000000000        2.30500000000000        7.47323509064578     
  0.247000000000000        2.35400000000000        7.51495433401338     
  0.247000000000000        2.40300000000000        7.56030079051197     
  0.247000000000000        2.45200000000000        7.60914072231960     
  0.247000000000000        2.50100000000000        7.66132249330929     
  0.247000000000000        2.55000000000000        7.71667805177806     
  0.247000000000000        2.59900000000000        7.77502441317649     
  0.247000000000000        2.64800000000000        7.83616514283794     
  0.247000000000000        2.69700000000000        7.89989183870787     
  0.247000000000000        2.74600000000000        7.96598561407305     
  0.247000000000000        2.79500000000000        8.03421858029110     
  0.247000000000000        2.84400000000000        8.10435532951965     
  0.247000000000000        2.89300000000000        8.17615441744556     
  0.247000000000000        2.94200000000000        8.24936984601453     
  0.247000000000000        2.99100000000000        8.32375254616012     
  0.247000000000000        3.04000000000000        8.39905186053318     
  0.247000000000000        3.08900000000000        8.47501702623125     
  0.247000000000000        3.13800000000000        8.55139865752765     
  0.247000000000000        3.18700000000000        8.62795022860108     
  0.247000000000000        3.23600000000000        8.70442955626463     
  0.247000000000000        3.28500000000000        8.78060028269536     
  0.247000000000000        3.33400000000000        8.85623335816341     
  0.247000000000000        3.38300000000000        8.93110852376155     
  0.247000000000000        3.43200000000000        9.00501579413417     
  0.247000000000000        3.48100000000000        9.07775694020686     
  0.247000000000000        3.53000000000000        9.14914697191557     
  0.247000000000000        3.57900000000000        9.21901562093609     
  0.247000000000000        3.62800000000000        9.28720882341320     
  0.247000000000000        3.67700000000000        9.35359020269005     
  0.247000000000000        3.72600000000000        9.41804255203736     
  0.247000000000000        3.77500000000000        9.48046931738295     
  0.247000000000000        3.82400000000000        9.54079608004107     
  0.247000000000000        3.87300000000000        9.59897203944130     
  0.247000000000000        3.92200000000000        9.65497149585836     
  0.247000000000000        3.97100000000000        9.70879533314111     
  0.247000000000000        4.02000000000000        9.76047250144199     
  0.247000000000000        4.06900000000000        9.81006149994632     
  0.247000000000000        4.11800000000000        9.85765185960161     
  0.247000000000000        4.16700000000000        9.90336562584685     
  0.247000000000000        4.21600000000000        9.94735884134177     
  0.247000000000000        4.26500000000000        9.98982302869642     
  0.247000000000000        4.31400000000000        10.0309866732000     
  0.247000000000000        4.36300000000000        10.0711167055508     
  0.247000000000000        4.41200000000000        10.1105199845848     
  0.247000000000000        4.46100000000000        10.1495447800057     
  0.247000000000000        4.51000000000000        10.1885822551136     
  0.247000000000000        4.55900000000000        10.2280679495348     
  0.247000000000000        4.60800000000000        10.2684832619510     
  0.247000000000000        4.65700000000000        10.3103569328279     
  0.247000000000000        4.70600000000000        10.3542665271461     
  0.247000000000000        4.75500000000000        10.4008399171288     
  0.247000000000000        4.80400000000000        10.4507567649719     
  0.247000000000000        4.85300000000000        10.5047500055732     
  0.247000000000000        4.90200000000000        10.5636073292620     
  0.247000000000000        4.95100000000000        10.6281726645273     
  0.247000000000000        5.00000000000000        10.6993476607488     
  0.296000000000000       0.100000000000000        5.18256209083057     
  0.296000000000000       0.149000000000000        5.49135689403147     
  0.296000000000000       0.198000000000000        5.76784812732872     
  0.296000000000000       0.247000000000000        6.01421966677264     
  0.296000000000000       0.296000000000000        6.23257111290900     